<VTKFile type="PolyData" version="1.0" byte_order="LittleEndian" header_type="UInt64">
  <PolyData>
    <Piece NumberOfPoints="2601" NumberOfVerts="0" NumberOfLines="0" NumberOfStrips="0" NumberOfPolys="2500">
      <PointData>
        <DataArray type="Float32" Name="zvalue" NumberOfComponents="1" format="ascii" RangeMin="-1.9180639337570162" RangeMax="2.0854479522327654">
          1.2180362386329235 1.1880816483790257 1.1574755944532706 1.1260790992756555 1.094281498053214 1.062508842019136
          1.030446089453707 0.9986475892948632 0.9678782736288324 0.9355891724538348 0.9024851050005154 0.8719576185105267
          0.8432534965805875 0.8158556479722501 0.7903286065547733 0.767505867747891 0.74748782840772 0.7304533981828627
          0.7156685573222252 0.7011407743890697 0.6882565110789955 0.6768211752054427 0.6672747784569791 0.6596350243442847
          0.6538196594644345 0.6497565329497078 0.6476412714895583 0.6471832851842008 0.6485164423701877 0.651942194952786
          0.656945297223793 0.6634834220037441 0.6716125190457441 0.6811976424800033 0.6890277610847859 0.698667660886112
          0.7118369407775451 0.726966336088192 0.7428981683243004 0.7594421947734126 0.7765265648057665 0.7941312896521894
          0.8120754337473988 0.8302674759292833 0.8486969674197469 0.867376802817314 0.8862223210917697 0.905202368769813
          0.924311420603472 0.9435465264713448 0.9627306412691237 1.242067240103535 1.2112881788729937 1.1790817894781958
          1.1462219674364234 1.1124966127949258 1.0785781932324028 1.0445883160755696 1.0099157821420441 0.9755242695376372
          0.9420907088517229 0.9099381283333622 0.8757695104809532 0.8433411686588888 0.8123714147338346 0.783481919079945
          0.7572514289431874 0.7342083274197206 0.7138284973939795 0.6959301981208109 0.6793747943372802 0.6636953302989276
          0.6499862703132738 0.6377836349679383 0.627621704511424 0.6196301241790606 0.6137512395705867 0.6099820054883208
          0.6081970921761505 0.6083408396941451 0.6107581080664629 0.6152122108186218 0.6213647918611066 0.6291949510411713
          0.6371634859636198 0.6438101151773934 0.6533756561819387 0.6677613206581567 0.6837024131146996 0.7005503119937544
          0.7181020529682428 0.7361552674501614 0.7546844068091785 0.773588903271356 0.792753616665434 0.8121595813411865
          0.8318378020108013 0.8517087997194697 0.8717633146277247 0.8918522058237981 0.9119970296874491 0.9322290722987158
          1.2648200123444995 1.2337822265840312 1.2004878654161282 1.16555952507109 1.130087099333287 1.0943240118486302
          1.0576988280504016 1.020829943144986 0.9831611414108511 0.9458120094815324 0.9094107314237914 0.8743593449740348
          0.8417925902734814 0.8078350887042803 0.7751910095073407 0.7457224829430931 0.7193090888568233 0.6955162842414335
          0.6742043762456909 0.6552925847516998 0.6364136903956666 0.6197243878678467 0.6050796366487248 0.5922320062209169
          0.5817345245237847 0.5737598342262253 0.5682425428521118 0.564946859104503 0.5639371090736733 0.5650974015209991
          0.5688368660995503 0.5745761023194611 0.5822252510289145 0.5869408694203658 0.5937969346694966 0.6039424399409024
          0.619381340595261 0.6363602813916394 0.6543262468363296 0.6729575181244735 0.6921325655877631 0.711776811211494
          0.7317825629187393 0.7520914273726471 0.772662352659546 0.7934429160510967 0.8144493381754508 0.8356598683556321
          0.8568687611118261 0.877998684850114 0.8994351866784451 1.2859217804273828 1.2553006206300343 1.221248055014962
          1.1851652845749492 1.1472985544226457 1.1090076707144758 1.069950167708788 1.0301645404479427 0.9899624257167283
          0.9490516406950772 0.9082578275137652 0.8686701048619951 0.8313707942571332 0.7967321521371425 0.7649203117212583
          0.7323162842958513 0.7020118536003309 0.6746903297590929 0.6500118482119026 0.6276280967695366 0.6062369824295563
          0.5860835783817621 0.5681618762830442 0.5526571070428855 0.5394371955902185 0.5290477211186541 0.5214789242574451
          0.5165211953651467 0.5140297906992767 0.5141986260733391 0.5169258648248334 0.5222176746666332 0.5262845800122549
          0.5308215648983698 0.5381291601123097 0.5492400844517137 0.565939249601578 0.584320864060963 0.6035993698734173
          0.623479998509779 0.6439624550094291 0.6649015903160058 0.6862371846242893 0.7078331490834494 0.7297177953814672
          0.7518190487244221 0.7741814901508923 0.7966268518859614 0.8190820447943175 0.8415303166620078 0.8640711349950594
          1.3061963714236413 1.2756144864376626 1.2412138952522935 1.204091420528366 1.164805736111303 1.1238374155305242
          1.0814641938519216 1.0385031644435845 0.9947410160265429 0.9507048777064212 0.906073932128208 0.8621031730673393
          0.8202571164345026 0.7808536507349525 0.7446884395354078 0.7118751248172429 0.6822546049631953 0.6508129183361228
          0.622211235657093 0.5963939846770938 0.5722620726927053 0.5483675628965373 0.5268871281911378 0.5079140061532299
          0.49182310097961635 0.4786278336737463 0.4686413602623683 0.4617917241803158 0.4576599051594727 0.45659260741769947
          0.4583326540379137 0.46181405168576545 0.4628933057594414 0.4677036913613032 0.4756987807933612 0.488447356748456
          0.5064563499059757 0.5265165702049897 0.5474539269593295 0.5689664422751566 0.5909937161989098 0.6134936076818438
          0.636388865343555 0.6595449566227397 0.6829304711487313 0.7065773237237064 0.7303771052164083 0.7542900257749616
          0.7782374800941699 0.802077709876265 0.8258569990631809 1.3261313337262646 1.294779021049858 1.2604735374667664
          1.2225772717799623 1.1820788391153598 1.1392959090317696 1.0942201683999149 1.0472759637926865 0.9999253812973898
          0.951728881791699 0.9032007433575308 0.8550058265073032 0.8082193066735553 0.7634630228137426 0.7221627884517889
          0.6842124513170802 0.6496869882851312 0.6185497267883893 0.5903305101897758 0.5600820111906983 0.532521243820828
          0.5052508711137518 0.47973811342285816 0.45705211294545267 0.4375216106123831 0.4214013768682623 0.4085963074646819
          0.3992963559351592 0.3933821465920352 0.39077143072517145 0.3916044051839455 0.38966671001599285 0.3906921618429255
          0.39611788989445823 0.4053813668683357 0.42027590317868724 0.43982977156614156 0.46192220130815725 0.484891727240673
          0.5084471779216908 0.532468907553632 0.5568349830347085 0.581604679740296 0.606585173490017 0.631800708727056
          0.6571806929648201 0.6826920526617494 0.708271719875011 0.7337953315095891 0.7592672493492739 0.7845399088269966
          1.3458315872148705 1.3141792995153287 1.2798202678161201 1.2410221120173368 1.1993315448393933 1.1547689856511776
          1.1073125316371237 1.057329167773127 1.0050880610520763 0.9522140935588074 0.8988900181685348 0.8459848491996016
          0.7941817059383867 0.743273332054832 0.696070724790913 0.6525027212906194 0.6126507083182995 0.5762396862237548
          0.5432050335344714 0.5134441433997406 0.4856636902387162 0.4553944452101551 0.4254925945869924 0.39849561846643
          0.37508078934985967 0.35540204422548005 0.33968310866416507 0.3280083533441698 0.31995124764189614 0.31563653892028143
          0.31150922524737856 0.3071977329431771 0.3084082990130668 0.3148276897839182 0.32632870827033256 0.3435944525270801
          0.3649759274905235 0.3895252601178154 0.41499274039368556 0.4410183082778824 0.4675407249899614 0.4942327892720592
          0.5212343801032405 0.548378926986876 0.5757828152478442 0.6032317049532216 0.6306657249508396 0.6581165980035426
          0.6855049705837916 0.7127343290758836 0.7396922944551194 1.3642232769919318 1.3324611794869763 1.2975944397359032
          1.258644155066497 1.2154654087910766 1.1691906311075546 1.1194744965535572 1.066525072645158 1.010440007997192
          0.952087231784011 0.8930952107598981 0.8345929200190808 0.7771259800404359 0.7202587745416482 0.6662400511167601
          0.6160247391237935 0.5695990739566007 0.5271890204771964 0.48861878281989085 0.4533977466117888 0.4210692930871276
          0.3921536670948563 0.3625398525365055 0.33104701772079687 0.30333004299471905 0.2798078283826087 0.2607304780893436
          0.24624051463259905 0.23635547221596148 0.22976493458602354 0.21823998527455335 0.2131884305750483 0.2147156190971087
          0.22271694709202425 0.23729800161971915 0.25747295515757684 0.2809836218948482 0.30839298084206274 0.3368193994988283
          0.3657841609710209 0.3951591528577696 0.42470698139607715 0.454433159846992 0.48428659399879354 0.5142034026707136
          0.5440608605428386 0.573767042408069 0.6033548089154976 0.6327931035056206 0.6620163098147201 0.6909044441934197
          1.381584094211628 1.3497753009005227 1.3144682398211123 1.2754361614892753 1.2312823350106619 1.1828732309662287
          1.130690771783578 1.0745988253045107 1.0145579958836752 0.9514574965918898 0.8863971796497696 0.8209484876392475
          0.7570257035337237 0.6933439922268725 0.6317177989335084 0.5742317385601683 0.5205158857709142 0.47089883397463655
          0.42532644120717183 0.3836926435934593 0.34539581125770996 0.3104440008367725 0.27811263430908717 0.24846063928939038
          0.2204421550229936 0.19257540338181448 0.16964921419666637 0.1520151729254025 0.13968437841713605 0.12471295835230577
          0.11185905769773316 0.10646400549065621 0.10877882760041474 0.1189097993860543 0.13735515445645377 0.16081139771496297
          0.18691394070105719 0.21757565179523908 0.24941415175902862 0.281818722101822 0.31452927460783303 0.34735194207650993
          0.38036317629655614 0.4133828413687659 0.4462297959327113 0.47889422364873024 0.5113016211103868 0.5433961395928357
          0.5751433198733897 0.6065471207858061 0.637554978178313 1.3977375004426345 1.366057161694474 1.3305524735588592
          1.2910119069742716 1.2462930523684788 1.196175348514357 1.1413118178969954 1.081648088480112 1.0174996274483123
          0.9494463822885866 0.878625070938672 0.80648131266647 0.7342093350517416 0.6628461081209425 0.5932208468915335
          0.5267115887899733 0.46430854407947414 0.406176848444618 0.35241170887696177 0.30312521539535725 0.25770810019967694
          0.21612250267104677 0.17863514440909664 0.1431191422327136 0.11301197608973663 0.08798355924571619 0.06499425208241265
          0.04388848039518689 0.02506333309054316 0.0036821578853679406 -0.009659483740092723 -0.014590010343983188 -0.010459952596663658
          0.0030549962352348753 0.0259411263782309 0.05298547968818847 0.08241337865822378 0.11638022657857637 0.15203556785279987
          0.1883356654482962 0.2248496530525709 0.26146126743272985 0.2982257929759227 0.3348432782659009 0.37116242744034456
          0.40705911677942136 0.44251791109641 0.47750703860533644 0.5120086363846534 0.5459240785826188 0.5793030932046166
          1.4128917639870697 1.3812830742159434 1.3456394811451673 1.3056085238178023 1.2605498601243987 1.2088809054258098
          1.151496622789948 1.0882517421589368 1.0193658946167126 0.9460223102348925 0.8691472773684294 0.7900327568814082
          0.7100104647325222 0.6288787679999891 0.549810996180083 0.47327844324773977 0.401029501860215 0.3329172119314703
          0.2691761749489253 0.21036714813448593 0.1565385972304471 0.10726534042715828 0.06302724393359642 0.02229531593868291
          -0.013539160089388325 -0.04315512619329886 -0.06614646191084586 -0.08265750358952259 -0.10980130299130815 -0.1333338596088886
          -0.14683043557994133 -0.1501605918503592 -0.1426129519059124 -0.12438460448378962 -0.09741754738726639 -0.06637629982221623
          -0.032901474551969706 0.004521453878595576 0.044242885161670624 0.08454844268277066 0.12533920327764458 0.16628734175029902
          0.20723649758195162 0.24790619502664313 0.2881115689996408 0.3277111527841 0.3666364058466095 0.40494145914137586
          0.44255114409252977 0.4794570389035229 0.5157097607965768 1.4274992321016642 1.395720041205115 1.359857434932083
          1.3193111242265023 1.2737916490968328 1.2208622873558217 1.1610428026789374 1.0942320914534476 1.020721140250556
          0.9414024508688226 0.8578137860723117 0.771172505663652 0.682753716986672 0.592270185426089 0.5020149301684124
          0.4140663838024994 0.3300318679784569 0.2503824147733478 0.1754197916952378 0.10551559183823155 0.0414763346990491
          -0.01677077058558066 -0.06907464087336716 -0.11534651126581162 -0.15757013076321158 -0.1923441261405448 -0.2194440720775874
          -0.24674998277558585 -0.2729768175693825 -0.28949602899350874 -0.29986820106572415 -0.2998134189750688 -0.28679424700043393
          -0.26348254013598554 -0.23234577189080025 -0.19707650525227605 -0.15938258746916392 -0.11843660875687911 -0.07423211903895507
          -0.029306614402203342 0.015876149569440685 0.06129219529527006 0.10674024505111285 0.15196074724399686 0.19644623305874268
          0.24013653604115373 0.2829995805523387 0.3250447421195776 0.3662164485431998 0.40653657723535425 0.4460592160685467
          1.4418791262293558 1.4098347373318267 1.3736085059601018 1.3325710276224576 1.2860072782540168 1.2321072774773436
          1.1700040046426772 1.099648999116134 1.0213982272895858 0.9361097475988134 0.8452170004301238 0.7501385770901295
          0.6521936827588315 0.5512817065611176 0.44978277233164227 0.3492067070240687 0.25095773883173933 0.15808873825661982
          0.07022813387259262 -0.01206876866783781 -0.08773775034362832 -0.15623269050873864 -0.2176352068788805 -0.2712223577525696
          -0.3191170787277892 -0.35930688002111294 -0.39275207805472 -0.43011290406203495 -0.4573014721520823 -0.4728796934274836
          -0.4754767686982801 -0.4627929441690347 -0.44192359200792075 -0.41323045226573396 -0.3776849087829968 -0.33834074088297195
          -0.29631702400026655 -0.2515958679760555 -0.2029769633065737 -0.15346648046890055 -0.103460433710498 -0.053301029849935434
          -0.003237402585193002 0.04658915485374047 0.0956712130868507 0.14394261417020243 0.19123333032642856 0.237368976221947
          0.28244621176698925 0.32653127237725715 0.3696862313547839 1.456374123628122 1.424065061435374 1.3874895474535465
          1.345804723188722 1.298174042899683 1.2431896034454437 1.1785928502925316 1.1046172890929995 1.0214292308837147
          0.9298679032279268 0.831302379460868 0.727030492291397 0.6184384837918462 0.5059569041465192 0.39217152240869463
          0.2782679818795997 0.16567648799180024 0.056175978204822494 -0.0466622765593077 -0.1429258487488575 -0.2316420069020256
          -0.3113328961494561 -0.38203133190236693 -0.44336730707149064 -0.4961516363663263 -0.5412410170478357 -0.587215880869873
          -0.6255776762799505 -0.6514888005102629 -0.6644895444219693 -0.6619121480810453 -0.6413260173018733 -0.610184438809674
          -0.5710275847907548 -0.530575879337445 -0.48751291808186004 -0.4414657901699619 -0.39338357013538516 -0.3407879118889776
          -0.28689841810225886 -0.23216391555564742 -0.17733232527856196 -0.12261636710465589 -0.06811959601702919 -0.01414653684883032
          0.038829881055511765 0.09066138147714697 0.14144324870326333 0.1910050154406003 0.2392478154298645 0.28635545407111795
          1.4711405454490714 1.438640081544797 1.4016733143600169 1.3594187137937945 1.3106192098681178 1.2541888131767933
          1.1871899172290483 1.1092708450737105 1.0207786202757332 0.9224728049386873 0.8155821802250898 0.7014279582001322
          0.5814779871682273 0.4561988910721719 0.3282636605208737 0.19946524714349015 0.07157607193338283 -0.054039216761791305
          -0.17476833479676154 -0.28671798398887277 -0.38864108462730385 -0.4797633685473564 -0.5591539496236999 -0.6273403426677561
          -0.6840023796968276 -0.7373361873245811 -0.7877263931657584 -0.8252939766954265 -0.8490705212677939 -0.8574610849792856
          -0.8458470575268143 -0.8180748119482708 -0.7818025344509492 -0.7393570464766309 -0.6920914001317339 -0.6416354380045651
          -0.5924078197842232 -0.5411634060870595 -0.485277411264877 -0.42745250733490775 -0.36867349335990934 -0.3095958875821987
          -0.25046138571416143 -0.1913766909264597 -0.1327561114731365 -0.07496604013075203 -0.018239508694797322 0.037271871058970465
          0.09139049014129838 0.14411248052735007 0.19560461285078148 1.4861419903713409 1.453488049578616 1.4161739527262502
          1.3732242101568304 1.32335052046032 1.2649899935515068 1.1957060653419147 1.1138910908576123 1.0201178310403183
          0.9148521709894224 0.7988765221883956 0.6737665982406231 0.5409726677349556 0.40133301936980975 0.2578408261902601
          0.11262267573571005 -0.032064522291265565 -0.1747929222811708 -0.3128554066382412 -0.44075660614448575 -0.5563826038435714
          -0.6576260806330646 -0.7444765255572637 -0.817342050267257 -0.8768666241712999 -0.9371482975008021 -0.9854444778269262
          -1.0195833000046484 -1.039038039895933 -1.0392960492235508 -1.0180364346231616 -0.9868749152621453 -0.9485657231952436
          -0.9048018468395377 -0.8561637303241733 -0.8038722011277232 -0.7488996201715293 -0.6916507216678563 -0.6335916528595414
          -0.5726372327372453 -0.5106252753796987 -0.44803428772707254 -0.3851429755428781 -0.3218536135426844 -0.2588675287441667
          -0.1965773327789831 -0.13518307750246192 -0.07502274882280552 -0.016164219270910225 0.04126800084908743 0.09728573259584417
          1.501491996984363 1.4688275284546541 1.4311503770907934 1.3875124233084966 1.336415529673276 1.2762833618392546
          1.2045722654594546 1.1188036046489451 1.019548564183537 0.9068988747693553 0.7812491544620858 0.6440426616712278
          0.4968101565085316 0.3410522836647977 0.18024698631919364 0.01725324429597012 -0.1455410769615951 -0.3057796604431295
          -0.459757860360005 -0.6029181765197572 -0.7297715050676644 -0.8398510176768849 -0.9312714445995306 -1.005778141300717
          -1.0717876183489277 -1.127524193168216 -1.1707443465199485 -1.1990412486822437 -1.210926020936317 -1.2010001867036284
          -1.176971258756131 -1.1446227928493562 -1.1060443854179893 -1.0621502565317804 -1.0136256606441187 -0.961676349078808
          -0.9064373099447345 -0.8479378485872627 -0.784820123677166 -0.7198076283211987 -0.655588246099713 -0.5904599611719299
          -0.524495013944103 -0.45801820376844415 -0.3914195129461935 -0.3250869737909738 -0.2594458222085402 -0.19479007881189211
          -0.1313269092193671 -0.06922481307388449 -0.00846112387803745 1.5169054478391226 1.4844760230614622 1.4466156974791031
          1.4023111078309338 1.3500935902517028 1.2880957140989004 1.2139411923199266 1.1241487318076093 1.0191151950511252
          0.8986181479494278 0.7625150090634373 0.6120295012919772 0.44877851544207414 0.2749682751557224 0.09514999714313327
          -0.08725277594365403 -0.2688040845992311 -0.44596613717356237 -0.614240426117404 -0.7690465394931874 -0.9044633597971776
          -1.0185721585778338 -1.1115189615069383 -1.1869470007549696 -1.252014356373703 -1.3012173260671058 -1.3359103524066178
          -1.3571602121323578 -1.3599894767712202 -1.3443620712946407 -1.3195303431977237 -1.287658305464524 -1.2501050702776864
          -1.2078492028409793 -1.1611133762094983 -1.1106162739813383 -1.056811316056268 -0.9983651955309991 -0.9354878648321054
          -0.870070873155426 -0.8026318205497153 -0.7343510811960561 -0.6669145417322775 -0.598009953855714 -0.5285329056625164
          -0.4590572574447428 -0.38990718588032025 -0.32135696208993947 -0.2536828062885811 -0.18702868071421314 -0.12169830643842122
          1.532020717574752 1.5001916916723286 1.4624610039399102 1.4177562439208649 1.364473444868019 1.3005365787463925
          1.223665936448613 1.1301125843242454 1.0190278767014977 0.8899103578898667 0.7423837848027822 0.5771526904534912
          0.39640545614664663 0.20296801223891034 0.0021882789269002736 -0.20047934621327276 -0.40063254191585795 -0.5935520406335736
          -0.7732476147860975 -0.9344223143762593 -1.0732400281929115 -1.1866909078663364 -1.2765033890810038 -1.351555012114301
          -1.4085564027842992 -1.449569527057276 -1.4771387641578102 -1.491439587137716 -1.4850694275603944 -1.4681002462075046
          -1.4438340100734088 -1.4135938950771072 -1.3781283368503419 -1.3382965788445418 -1.2944878826294401 -1.246893509083729
          -1.1956083774400086 -1.1390571668872156 -1.0786725414057357 -1.015044868676313 -0.948572606000818 -0.8800348746116968
          -0.8096876257137432 -0.7384261020864797 -0.6675341178857035 -0.5960435613607058 -0.5242113625442222 -0.452473078578278
          -0.38139119979703573 -0.31084121600274345 -0.24124957477530246 1.546472950075069 1.5156569827439672 1.4783808237180571
          1.4336194791487777 1.3795105495966065 1.3139222395204908 1.2342460908678337 1.1368605860893415 1.0194965855527054
          0.8812527612509788 0.7213905769059086 0.5401282313638469 0.3402669948944603 0.12600663820132407 -0.09629076826557215
          -0.3201831911316238 -0.5384751081104541 -0.7443296111667932 -0.9303360043241038 -1.092321897798644 -1.2287131811522998
          -1.3369461229459947 -1.4227451484562528 -1.4895973695374716 -1.5379898081365282 -1.5718972758668082 -1.593031953686318
          -1.5974443139064776 -1.5882846641479276 -1.5718107469131573 -1.549370686069181 -1.5218219722637585 -1.4895993442273012
          -1.4529968188694913 -1.41246744226276 -1.3684914096167626 -1.3200547774913527 -1.2671569038586021 -1.210239681637528
          -1.1498073003031708 -1.0863660879233452 -1.0197559549437925 -0.9507079814772805 -0.8793434181770878 -0.8059442215270838
          -0.7322239003372809 -0.6591722268894212 -0.5855868852409313 -0.51196831844702 -0.4384516770905754 -0.36538535625175217
          1.5598553565930984 1.5304840824287993 1.4940854416403506 1.4495245022290086 1.3950086850461227 1.3280752816462877
          1.2457668605550518 1.1440797274829952 1.019920528915673 0.8716693961876735 0.6980333174368466 0.4997026314007756
          0.27946187750785 0.043239829377996225 -0.20071917464191508 -0.4440233180374024 -0.6774494307304432 -0.8916780018376878
          -1.0780300779583627 -1.236029482269035 -1.3653440943830217 -1.465579101099111 -1.5446511418708824 -1.6019801965955471
          -1.6424807225913154 -1.6693785484852237 -1.68372324739383 -1.6812197749319315 -1.6716040037370121 -1.6562492619014713
          -1.6364972560717903 -1.6123484033060294 -1.5839278014935538 -1.5514052468262052 -1.51482345625997 -1.4745932516804776
          -1.4296166501559562 -1.381094470866415 -1.3287522559047487 -1.2726442222587775 -1.212779006311999 -1.1496728333891846
          -1.0834463605938207 -1.0140967106218781 -0.9422449070315965 -0.8684129992629792 -0.7928296424295066 -0.7175609788442164
          -0.6426502262831418 -0.5672065992566767 -0.4919838111095477 1.571360629177928 1.5436717549212386 1.5086763517595994
          1.4649449609809533 1.4104046869629696 1.3423814583791394 1.2576195092588698 1.1516559376251252 1.019742320320216
          0.8607531706970234 0.6724056583723659 0.4556992042757903 0.2146452017719496 -0.04373254169760435 -0.30846648903922513
          -0.5681588701838992 -0.8109466843702214 -1.0265401796468503 -1.210672722388188 -1.3615141097157415 -1.4809271117663865
          -1.5742238878372414 -1.642529745649586 -1.6911878079109715 -1.7249866880572076 -1.7472426463762278 -1.7519558021369095
          -1.7468621152203396 -1.7375544994844758 -1.7240929027625271 -1.7068940319074846 -1.6861520048830974 -1.6617191890837382
          -1.6334225182731679 -1.6013346520399807 -1.5653152877699632 -1.524900719313616 -1.4807968401113298 -1.4332897316099242
          -1.3819743552774566 -1.3270197047476127 -1.2681603407862112 -1.2056079040640129 -1.1397246280306768 -1.0704411819089774
          -0.9987111996439183 -0.9248341166886777 -0.8490763497387347 -0.771584474301703 -0.6943866721513544 -0.6175870834400481
          1.580916544993083 1.5551661255554956 1.521894286336582 1.4791937434981999 1.4250102770776074 1.3562489499473407
          1.269076226933237 1.1590169720841814 1.0195070233235022 0.8488611381770004 0.6453269077988414 0.4100051327237185
          0.14847200255703635 -0.13071162164920705 -0.41371263231808475 -0.6856417310423775 -0.9323650299280349 -1.1450060331087788
          -1.3225078221871183 -1.4652187713498122 -1.5758114444618754 -1.6604120925278303 -1.7199256204279865 -1.7622095848851533
          -1.7910509066534996 -1.80560428184108 -1.8056186008049842 -1.799294183120572 -1.7896710857441658 -1.777609048336209
          -1.7627512828814638 -1.7451196509734601 -1.724540986570963 -1.7005649529925382 -1.6730414702048095 -1.6413284085227746
          -1.60592785690685 -1.5668447869923874 -1.5241574554820359 -1.4778352532327919 -1.427785606592261 -1.3740623306691608
          -1.3163938594476263 -1.2545898854934894 -1.1889606872101814 -1.1201216636164983 -1.0486864596912389 -0.9750109969312069
          -0.8991914698303161 -0.821090724283659 -0.7409510865186155 1.588793159439873 1.564916850487707 1.5333261435536785
          1.4919831373703258 1.4383321423009896 1.3690120832580064 1.279724112418241 1.165520451489913 1.0188912003739468
          0.8372279270087849 0.6187431296782836 0.36585544084981925 0.08527822622650408 -0.21189158000623748 -0.5097392473733052
          -0.7898013717398671 -1.0374554933166793 -1.2457551532031739 -1.4147895686274279 -1.546629610167101 -1.6502416213763003
          -1.727343042026699 -1.780575776117973 -1.8163902450830807 -1.8393712843677692 -1.846840497329735 -1.8466010172843428
          -1.8412375810827992 -1.8316951564782076 -1.8201042811801775 -1.8067210051866773 -1.7913533365917182 -1.7739089748823067
          -1.7536281236422586 -1.7302585038812923 -1.7031110214092482 -1.6724658177976492 -1.63851795318588 -1.601267786015972
          -1.560214110940722 -1.5153090606751138 -1.4666427906033206 -1.414083300879165 -1.3572635485102291 -1.2962052533528063
          -1.23150016774463 -1.1634055409112416 -1.092486401443169 -1.019019525218499 -0.9431968887862022 -0.8646269155200943
          1.5949416960927805 1.5731722174646787 1.5432629132938438 1.5032562062958326 1.4501816851827387 1.380357389749581
          1.2891379565270729 1.171161225916817 1.0180205921008598 0.826830085760862 0.5953880688388281 0.3270902287937091
          0.03007825154041555 -0.28221972841798615 -0.5910433961148782 -0.8767281985554576 -1.12446099764801 -1.3276006563078904
          -1.4878904207541772 -1.6119521927516176 -1.7059920458910924 -1.7763231568815236 -1.8247478240168349 -1.854429537207595
          -1.8703502981129123 -1.8763282255968285 -1.8764999408747425 -1.8724446469174867 -1.864687490829656 -1.853699880891326
          -1.8411624494359924 -1.827407354202445 -1.8120489977821281 -1.7946742925725936 -1.7746501374360963 -1.7516636770438794
          -1.725621327704661 -1.6964240689222747 -1.6640823819376163 -1.6285784826527028 -1.5893392356556562 -1.5460171645115992
          -1.4986873359487958 -1.4471330762731323 -1.391319533940325 -1.3315969998008956 -1.2679255814865833 -1.200770944485868
          -1.130432617048042 -1.0572618146504194 -0.9813288317064708 1.5995268402214142 1.579517455289653 1.5515334311704803
          1.5132645460434537 1.4610454131448136 1.3908042505673184 1.2977754200412785 1.1765133714928195 1.0181380161404494
          0.8193403283223218 0.5780235946768703 0.2975149606230238 -0.013108456940500774 -0.33747483240571213 -0.6548099306338516
          -0.9445315196889081 -1.1918083548543372 -1.3902444800248677 -1.5440109398399076 -1.661098684869314 -1.747744423911026
          -1.8104428822556744 -1.8529356547177505 -1.8786502879276477 -1.8905374426400627 -1.8959977793566563 -1.8970059677850626
          -1.894217989196589 -1.888239198462294 -1.879363991122407 -1.867814680209453 -1.8549095806269882 -1.8409404734377237
          -1.825673750069963 -1.808351083012487 -1.7888033456694263 -1.7668219361845519 -1.7420731037135189 -1.714275143378022
          -1.6835393839972486 -1.6496138100975621 -1.6119589088509552 -1.5704577760097314 -1.5244566845655076 -1.4741608101659471
          -1.4196778408779152 -1.3612197680095754 -1.2987153032411578 -1.232237169205887 -1.16223273054547 -1.089273777292503
          1.6029663589708134 1.5844278720363472 1.558156375275953 1.5215453169299038 1.4710052713499142 1.4014565102201546
          1.3074521793683926 1.183524227140446 1.0210290049527262 0.8170094404324642 0.5692124267961335 0.2802011159740327
          -0.04057906943703252 -0.37503819140129774 -0.6996535083907928 -0.9926159746803114 -1.2393816802644173 -1.4347042519342041
          -1.5863103187896728 -1.6964401371994995 -1.776639462928114 -1.8329589980177177 -1.8704376609041793 -1.8910394104167259
          -1.90237217648851 -1.9081337808563938 -1.9096773540373198 -1.9081986745780042 -1.903894038896603 -1.8969066992720336
          -1.8874053519549077 -1.875623264903151 -1.862651228035505 -1.848528251625048 -1.8331193877766179 -1.8163003661253367
          -1.7975037115123673 -1.7764254769052321 -1.7529467823010096 -1.7266521693396704 -1.6974224257282498 -1.6649412768754306
          -1.6289523879219179 -1.5889754962151736 -1.544497376006041 -1.4956480737686195 -1.4423748298747538 -1.38490904691614
          -1.323532259031265 -1.2579021408461355 -1.18842981297742 1.6061292643477507 1.5884214743779599 1.563595434576845
          1.52875194781463 1.4799764883076074 1.4121884401366458 1.3193925523836878 1.1954622759831919 1.0314544014899834
          0.8237521061015254 0.5714381489516445 0.2773974144627458 -0.049933338611350214 -0.3925698437730707 -0.724431715184601
          -1.0213701221734737 -1.268450972006516 -1.4645835441333914 -1.613271035422264 -1.7188993355985198 -1.7939990163747022
          -1.846006663000086 -1.878469668350265 -1.896784437232573 -1.9074682747571534 -1.913693023985165 -1.9164093032358465